<?xml version="1.0"?>
<VTKFile type="UnstructuredGrid" version="1.0">
<UnstructuredGrid>
<Piece NumberOfPoints="441" NumberOfCells="400">
<Points>
<DataArray type="Float64" Name="nodes"  NumberOfComponents="3"  format="ascii">
  0.000000e+00   0.000000e+00 0.0
  1.000000e-01   0.000000e+00 0.0
  2.000000e-01   0.000000e+00 0.0
  3.000000e-01   0.000000e+00 0.0
  4.000000e-01   0.000000e+00 0.0
  5.000000e-01   0.000000e+00 0.0
  6.000000e-01   0.000000e+00 0.0
  7.000000e-01   0.000000e+00 0.0
  8.000000e-01   0.000000e+00 0.0
  9.000000e-01   0.000000e+00 0.0
  1.000000e+00   0.000000e+00 0.0
  1.100000e+00   0.000000e+00 0.0
  1.200000e+00   0.000000e+00 0.0
  1.300000e+00   0.000000e+00 0.0
  1.400000e+00   0.000000e+00 0.0
  1.500000e+00   0.000000e+00 0.0
  1.600000e+00   0.000000e+00 0.0
  1.700000e+00   0.000000e+00 0.0
  1.800000e+00   0.000000e+00 0.0
  1.900000e+00   0.000000e+00 0.0
  2.000000e+00   0.000000e+00 0.0
  0.000000e+00   1.000000e-01 0.0
  1.000000e-01   1.000000e-01 0.0
  2.000000e-01   1.000000e-01 0.0
  3.000000e-01   1.000000e-01 0.0
  4.000000e-01   1.000000e-01 0.0
  5.000000e-01   1.000000e-01 0.0
  6.000000e-01   1.000000e-01 0.0
  7.000000e-01   1.000000e-01 0.0
  8.000000e-01   1.000000e-01 0.0
  9.000000e-01   1.000000e-01 0.0
  1.000000e+00   1.000000e-01 0.0
  1.100000e+00   1.000000e-01 0.0
  1.200000e+00   1.000000e-01 0.0
  1.300000e+00   1.000000e-01 0.0
  1.400000e+00   1.000000e-01 0.0
  1.500000e+00   1.000000e-01 0.0
  1.600000e+00   1.000000e-01 0.0
  1.700000e+00   1.000000e-01 0.0
  1.800000e+00   1.000000e-01 0.0
  1.900000e+00   1.000000e-01 0.0
  2.000000e+00   1.000000e-01 0.0
  0.000000e+00   2.000000e-01 0.0
  1.000000e-01   2.000000e-01 0.0
  2.000000e-01   2.000000e-01 0.0
  3.000000e-01   2.000000e-01 0.0
  4.000000e-01   2.000000e-01 0.0
  5.000000e-01   2.000000e-01 0.0
  6.000000e-01   2.000000e-01 0.0
  7.000000e-01   2.000000e-01 0.0
  8.000000e-01   2.000000e-01 0.0
  9.000000e-01   2.000000e-01 0.0
  1.000000e+00   2.000000e-01 0.0
  1.100000e+00   2.000000e-01 0.0
  1.200000e+00   2.000000e-01 0.0
  1.300000e+00   2.000000e-01 0.0
  1.400000e+00   2.000000e-01 0.0
  1.500000e+00   2.000000e-01 0.0
  1.600000e+00   2.000000e-01 0.0
  1.700000e+00   2.000000e-01 0.0
  1.800000e+00   2.000000e-01 0.0
  1.900000e+00   2.000000e-01 0.0
  2.000000e+00   2.000000e-01 0.0
  0.000000e+00   3.000000e-01 0.0
  1.000000e-01   3.000000e-01 0.0
  2.000000e-01   3.000000e-01 0.0
  3.000000e-01   3.000000e-01 0.0
  4.000000e-01   3.000000e-01 0.0
  5.000000e-01   3.000000e-01 0.0
  6.000000e-01   3.000000e-01 0.0
  7.000000e-01   3.000000e-01 0.0
  8.000000e-01   3.000000e-01 0.0
  9.000000e-01   3.000000e-01 0.0
  1.000000e+00   3.000000e-01 0.0
  1.100000e+00   3.000000e-01 0.0
  1.200000e+00   3.000000e-01 0.0
  1.300000e+00   3.000000e-01 0.0
  1.400000e+00   3.000000e-01 0.0
  1.500000e+00   3.000000e-01 0.0
  1.600000e+00   3.000000e-01 0.0
  1.700000e+00   3.000000e-01 0.0
  1.800000e+00   3.000000e-01 0.0
  1.900000e+00   3.000000e-01 0.0
  2.000000e+00   3.000000e-01 0.0
  0.000000e+00   4.000000e-01 0.0
  1.000000e-01   4.000000e-01 0.0
  2.000000e-01   4.000000e-01 0.0
  3.000000e-01   4.000000e-01 0.0
  4.000000e-01   4.000000e-01 0.0
  5.000000e-01   4.000000e-01 0.0
  6.000000e-01   4.000000e-01 0.0
  7.000000e-01   4.000000e-01 0.0
  8.000000e-01   4.000000e-01 0.0
  9.000000e-01   4.000000e-01 0.0
  1.000000e+00   4.000000e-01 0.0
  1.100000e+00   4.000000e-01 0.0
  1.200000e+00   4.000000e-01 0.0
  1.300000e+00   4.000000e-01 0.0
  1.400000e+00   4.000000e-01 0.0
  1.500000e+00   4.000000e-01 0.0
  1.600000e+00   4.000000e-01 0.0
  1.700000e+00   4.000000e-01 0.0
  1.800000e+00   4.000000e-01 0.0
  1.900000e+00   4.000000e-01 0.0
  2.000000e+00   4.000000e-01 0.0
  0.000000e+00   5.000000e-01 0.0
  1.000000e-01   5.000000e-01 0.0
  2.000000e-01   5.000000e-01 0.0
  3.000000e-01   5.000000e-01 0.0
  4.000000e-01   5.000000e-01 0.0
  5.000000e-01   5.000000e-01 0.0
  6.000000e-01   5.000000e-01 0.0
  7.000000e-01   5.000000e-01 0.0
  8.000000e-01   5.000000e-01 0.0
  9.000000e-01   5.000000e-01 0.0
  1.000000e+00   5.000000e-01 0.0
  1.100000e+00   5.000000e-01 0.0
  1.200000e+00   5.000000e-01 0.0
  1.300000e+00   5.000000e-01 0.0
  1.400000e+00   5.000000e-01 0.0
  1.500000e+00   5.000000e-01 0.0
  1.600000e+00   5.000000e-01 0.0
  1.700000e+00   5.000000e-01 0.0
  1.800000e+00   5.000000e-01 0.0
  1.900000e+00   5.000000e-01 0.0
  2.000000e+00   5.000000e-01 0.0
  0.000000e+00   6.000000e-01 0.0
  1.000000e-01   6.000000e-01 0.0
  2.000000e-01   6.000000e-01 0.0
  3.000000e-01   6.000000e-01 0.0
  4.000000e-01   6.000000e-01 0.0
  5.000000e-01   6.000000e-01 0.0
  6.000000e-01   6.000000e-01 0.0
  7.000000e-01   6.000000e-01 0.0
  8.000000e-01   6.000000e-01 0.0
  9.000000e-01   6.000000e-01 0.0
  1.000000e+00   6.000000e-01 0.0
  1.100000e+00   6.000000e-01 0.0
  1.200000e+00   6.000000e-01 0.0
  1.300000e+00   6.000000e-01 0.0
  1.400000e+00   6.000000e-01 0.0
  1.500000e+00   6.000000e-01 0.0
  1.600000e+00   6.000000e-01 0.0
  1.700000e+00   6.000000e-01 0.0
  1.800000e+00   6.000000e-01 0.0
  1.900000e+00   6.000000e-01 0.0
  2.000000e+00   6.000000e-01 0.0
  0.000000e+00   7.000000e-01 0.0
  1.000000e-01   7.000000e-01 0.0
  2.000000e-01   7.000000e-01 0.0
  3.000000e-01   7.000000e-01 0.0
  4.000000e-01   7.000000e-01 0.0
  5.000000e-01   7.000000e-01 0.0
  6.000000e-01   7.000000e-01 0.0
  7.000000e-01   7.000000e-01 0.0
  8.000000e-01   7.000000e-01 0.0
  9.000000e-01   7.000000e-01 0.0
  1.000000e+00   7.000000e-01 0.0
  1.100000e+00   7.000000e-01 0.0
  1.200000e+00   7.000000e-01 0.0
  1.300000e+00   7.000000e-01 0.0
  1.400000e+00   7.000000e-01 0.0
  1.500000e+00   7.000000e-01 0.0
  1.600000e+00   7.000000e-01 0.0
  1.700000e+00   7.000000e-01 0.0
  1.800000e+00   7.000000e-01 0.0
  1.900000e+00   7.000000e-01 0.0
  2.000000e+00   7.000000e-01 0.0
  0.000000e+00   8.000000e-01 0.0
  1.000000e-01   8.000000e-01 0.0
  2.000000e-01   8.000000e-01 0.0
  3.000000e-01   8.000000e-01 0.0
  4.000000e-01   8.000000e-01 0.0
  5.000000e-01   8.000000e-01 0.0
  6.000000e-01   8.000000e-01 0.0
  7.000000e-01   8.000000e-01 0.0
  8.000000e-01   8.000000e-01 0.0
  9.000000e-01   8.000000e-01 0.0
  1.000000e+00   8.000000e-01 0.0
  1.100000e+00   8.000000e-01 0.0
  1.200000e+00   8.000000e-01 0.0
  1.300000e+00   8.000000e-01 0.0
  1.400000e+00   8.000000e-01 0.0
  1.500000e+00   8.000000e-01 0.0
  1.600000e+00   8.000000e-01 0.0
  1.700000e+00   8.000000e-01 0.0
  1.800000e+00   8.000000e-01 0.0
  1.900000e+00   8.000000e-01 0.0
  2.000000e+00   8.000000e-01 0.0
  0.000000e+00   9.000000e-01 0.0
  1.000000e-01   9.000000e-01 0.0
  2.000000e-01   9.000000e-01 0.0
  3.000000e-01   9.000000e-01 0.0
  4.000000e-01   9.000000e-01 0.0
  5.000000e-01   9.000000e-01 0.0
  6.000000e-01   9.000000e-01 0.0
  7.000000e-01   9.000000e-01 0.0
  8.000000e-01   9.000000e-01 0.0
  9.000000e-01   9.000000e-01 0.0
  1.000000e+00   9.000000e-01 0.0
  1.100000e+00   9.000000e-01 0.0
  1.200000e+00   9.000000e-01 0.0
  1.300000e+00   9.000000e-01 0.0
  1.400000e+00   9.000000e-01 0.0
  1.500000e+00   9.000000e-01 0.0
  1.600000e+00   9.000000e-01 0.0
  1.700000e+00   9.000000e-01 0.0
  1.800000e+00   9.000000e-01 0.0
  1.900000e+00   9.000000e-01 0.0
  2.000000e+00   9.000000e-01 0.0
  0.000000e+00   1.000000e+00 0.0
  1.000000e-01   1.000000e+00 0.0
  2.000000e-01   1.000000e+00 0.0
  3.000000e-01   1.000000e+00 0.0
  4.000000e-01   1.000000e+00 0.0
  5.000000e-01   1.000000e+00 0.0
  6.000000e-01   1.000000e+00 0.0
  7.000000e-01   1.000000e+00 0.0
  8.000000e-01   1.000000e+00 0.0
  9.000000e-01   1.000000e+00 0.0
  1.000000e+00   1.000000e+00 0.0
  1.100000e+00   1.000000e+00 0.0
  1.200000e+00   1.000000e+00 0.0
  1.300000e+00   1.000000e+00 0.0
  1.400000e+00   1.000000e+00 0.0
  1.500000e+00   1.000000e+00 0.0
  1.600000e+00   1.000000e+00 0.0
  1.700000e+00   1.000000e+00 0.0
  1.800000e+00   1.000000e+00 0.0
  1.900000e+00   1.000000e+00 0.0
  2.000000e+00   1.000000e+00 0.0
  0.000000e+00   1.100000e+00 0.0
  1.000000e-01   1.100000e+00 0.0
  2.000000e-01   1.100000e+00 0.0
  3.000000e-01   1.100000e+00 0.0
  4.000000e-01   1.100000e+00 0.0
  5.000000e-01   1.100000e+00 0.0
  6.000000e-01   1.100000e+00 0.0
  7.000000e-01   1.100000e+00 0.0
  8.000000e-01   1.100000e+00 0.0
  9.000000e-01   1.100000e+00 0.0
  1.000000e+00   1.100000e+00 0.0
  1.100000e+00   1.100000e+00 0.0
  1.200000e+00   1.100000e+00 0.0
  1.300000e+00   1.100000e+00 0.0
  1.400000e+00   1.100000e+00 0.0
  1.500000e+00   1.100000e+00 0.0
  1.600000e+00   1.100000e+00 0.0
  1.700000e+00   1.100000e+00 0.0
  1.800000e+00   1.100000e+00 0.0
  1.900000e+00   1.100000e+00 0.0
  2.000000e+00   1.100000e+00 0.0
  0.000000e+00   1.200000e+00 0.0
  1.000000e-01   1.200000e+00 0.0
  2.000000e-01   1.200000e+00 0.0
  3.000000e-01   1.200000e+00 0.0
  4.000000e-01   1.200000e+00 0.0
  5.000000e-01   1.200000e+00 0.0
  6.000000e-01   1.200000e+00 0.0
  7.000000e-01   1.200000e+00 0.0
  8.000000e-01   1.200000e+00 0.0
  9.000000e-01   1.200000e+00 0.0
  1.000000e+00   1.200000e+00 0.0
  1.100000e+00   1.200000e+00 0.0
  1.200000e+00   1.200000e+00 0.0
  1.300000e+00   1.200000e+00 0.0
  1.400000e+00   1.200000e+00 0.0
  1.500000e+00   1.200000e+00 0.0
  1.600000e+00   1.200000e+00 0.0
  1.700000e+00   1.200000e+00 0.0
  1.800000e+00   1.200000e+00 0.0
  1.900000e+00   1.200000e+00 0.0
  2.000000e+00   1.200000e+00 0.0
  0.000000e+00   1.300000e+00 0.0
  1.000000e-01   1.300000e+00 0.0
  2.000000e-01   1.300000e+00 0.0
  3.000000e-01   1.300000e+00 0.0
  4.000000e-01   1.300000e+00 0.0
  5.000000e-01   1.300000e+00 0.0
  6.000000e-01   1.300000e+00 0.0
  7.000000e-01   1.300000e+00 0.0
  8.000000e-01   1.300000e+00 0.0
  9.000000e-01   1.300000e+00 0.0
  1.000000e+00   1.300000e+00 0.0
  1.100000e+00   1.300000e+00 0.0
  1.200000e+00   1.300000e+00 0.0
  1.300000e+00   1.300000e+00 0.0
[...]
<PointData Scalar="phi " >
<DataArray type="Float64" Name="phi"  NumberOfComponents="1" format="ascii">
  8.140102e-18
 -8.105776e-02
 -1.591696e-01
 -2.335058e-01
 -3.035509e-01
 -3.689785e-01
 -4.296050e-01
 -4.853562e-01
 -5.362392e-01
 -5.823202e-01
 -6.237050e-01
 -6.605236e-01
 -6.929180e-01
 -7.210336e-01
 -7.450126e-01
 -7.649906e-01
 -7.810948e-01
 -7.934437e-01
 -8.021478e-01
 -8.073090e-01
 -8.090149e-01
  1.639052e-17
 -8.144190e-02
 -1.596714e-01
 -2.340098e-01
 -3.039844e-01
 -3.692953e-01
 -4.297773e-01
 -4.853694e-01
 -5.360890e-01
 -5.820096e-01
 -6.232422e-01
 -6.599205e-01
 -6.921886e-01
 -7.201926e-01
 -7.440748e-01
 -7.639701e-01
 -7.800044e-01
 -7.922949e-01
 -8.009510e-01
 -8.060749e-01
 -8.077614e-01
  1.662410e-17
 -8.227909e-02
 -1.608433e-01
 -2.352081e-01
 -3.050135e-01
 -3.700311e-01
 -4.301467e-01
 -4.853367e-01
 -5.356464e-01
 -5.811695e-01
 -6.220313e-01
 -6.583745e-01
 -6.903480e-01
 -7.181000e-01
 -7.417718e-01
 -7.614955e-01
 -7.773931e-01
 -7.895771e-01
 -7.981528e-01
 -8.032213e-01
 -8.048845e-01
  1.690900e-17
 -8.331846e-02
 -1.623419e-01
 -2.367539e-01
 -3.063285e-01
 -3.709372e-01
 -4.305400e-01
 -4.851696e-01
 -5.349126e-01
 -5.798928e-01
 -6.202558e-01
 -6.561570e-01
 -6.877521e-01
 -7.151907e-01
 -7.386119e-01
 -7.581426e-01
 -7.738975e-01
 -7.859810e-01
 -7.944901e-01
 -7.995197e-01
 -8.011693e-01
  1.721635e-17
 -8.444130e-02
 -1.639681e-01
 -2.384225e-01
 -3.077176e-01
 -3.718382e-01
 -4.308336e-01
 -4.848045e-01
 -5.338881e-01
 -5.782444e-01
 -6.180434e-01
 -6.534552e-01
 -6.846426e-01
 -7.117559e-01
 -7.349303e-01
 -7.542849e-01
 -7.699239e-01
 -7.819393e-01
 -7.904152e-01
 -7.954335e-01
 -7.970819e-01
  1.753109e-17
 -8.558074e-02
 -1.656042e-01
 -2.400725e-01
 -3.090418e-01
 -3.726173e-01
 -4.309450e-01
 -4.842004e-01
 -5.325764e-01
 -5.762727e-01
 -6.154853e-01
 -6.503999e-01
 -6.811859e-01
 -7.079933e-01
 -7.309514e-01
 -7.501689e-01
 -7.657363e-01
 -7.777293e-01
 -7.862138e-01
 -7.912525e-01
 -7.929126e-01
  1.784429e-17
 -8.669681e-02
 -1.671789e-01
 -2.416166e-01
 -3.102140e-01
 -3.732010e-01
 -4.308237e-01
 -4.833352e-01
 -5.309861e-01
 -5.740165e-01
 -6.126491e-01
 -6.470847e-01
 -6.774984e-01
 -7.040386e-01
 -7.268269e-01
 -7.459593e-01
 -7.615096e-01
 -7.735331e-01
 -7.820727e-01
 -7.871654e-01
 -7.888506e-01
  1.815050e-17
 -8.776524e-02
 -1.686496e-01
 -2.430029e-01
 -3.111833e-01
 -3.735478e-01
 -4.304438e-01
 -4.822023e-01
 -5.291309e-01
 -5.715098e-01
 -6.095874e-01
 -6.435785e-01
 -6.736631e-01
 -6.999867e-01
 -7.226614e-01
 -7.417686e-01
 -7.573623e-01
 -7.694740e-01
 -7.781186e-01
 -7.833011e-01
 -7.850257e-01
  1.844639e-17
 -8.877171e-02
 -1.699919e-01
 -2.442031e-01
 -3.119236e-01
 -3.736390e-01
 -4.297979e-01
 -4.808070e-01
 -5.270297e-01
 -5.687841e-01
 -6.063431e-01
 -6.399341e-01
 -6.697410e-01
 -6.959052e-01
 -7.185282e-01
 -7.376749e-01
 -7.533772e-01
 -7.656389e-01
 -7.744419e-01
 -7.797530e-01
 -7.815324e-01
  1.873004e-17
 -8.970860e-02
 -1.711940e-01
 -2.452055e-01
 -3.124267e-01
 -3.734732e-01
 -4.288924e-01
 -4.791649e-01
 -5.247065e-01
 -5.658713e-01
 -6.029543e-01
 -6.361948e-01
 -6.657794e-01
 -6.918446e-01
 -7.144808e-01
 -7.337348e-01
 -7.496142e-01
 -7.620920e-01
 -7.711117e-01
 -7.765942e-01
 -7.784459e-01
  1.900060e-17
 -9.057309e-02
 -1.722532e-01
 -2.460100e-01
 -3.126977e-01
 -3.730615e-01
 -4.277454e-01
 -4.773001e-01
 -5.221907e-01
 -5.628046e-01
 -5.994573e-01
 -6.323985e-01
 -6.618170e-01
 -6.878446e-01
 -7.105598e-01
 -7.299909e-01
 -7.461196e-01
 -7.588843e-01
 -7.681848e-01
 -7.738874e-01
 -7.758319e-01
  1.925795e-17
 -9.136600e-02
 -1.731736e-01
 -2.466259e-01
 -3.127519e-01
 -3.724256e-01
 -4.263841e-01
 -4.752443e-01
 -5.195174e-01
 -5.596209e-01
 -5.958892e-01
 -6.285816e-01
 -6.578890e-01
 -6.839389e-01
 -7.067984e-01
 -7.264776e-01
 -7.429309e-01
 -7.560594e-01
 -7.657126e-01
 -7.716916e-01
 -7.737535e-01
  1.950264e-17
 -9.209105e-02
 -1.739645e-01
 -2.470697e-01
 -3.126132e-01
 -3.715960e-01
 -4.248445e-01
 -4.730377e-01
 -5.167286e-01
 -5.563625e-01
 -5.922908e-01
 -6.247822e-01
 -6.540302e-01
 -6.801589e-01
 -7.032260e-01
 -7.232242e-01
 -7.400807e-01
 -7.536564e-01
 -7.637441e-01
 -7.700666e-01
 -7.722764e-01
  1.973571e-17
 -9.275432e-02
 -1.746399e-01
 -2.473639e-01
 -3.123127e-01
 -3.706115e-01
 -4.231715e-01
 -4.707288e-01
 -5.138747e-01
 -5.530792e-01
 -5.887095e-01
 -6.210434e-01
 -6.502783e-01
 -6.765372e-01
 -6.998710e-01
 -7.202574e-01
 -7.375981e-01
 -7.517122e-01
 -7.623286e-01
 -7.690760e-01
 -7.714724e-01
  1.995861e-17
 -9.336368e-02
 -1.752171e-01
 -2.475362e-01
 -3.118882e-01
 -3.695189e-01
 -4.214190e-01
 -4.683766e-01
 -5.110167e-01
 -5.498315e-01
 -5.852026e-01
 -6.174170e-01
 -6.466781e-01
 -6.731107e-01
 -6.967628e-01
 -7.176024e-01
 -7.355087e-01
 -7.502601e-01
 -7.615148e-01
 -7.687879e-01
 -7.714219e-01
  2.017298e-17
 -9.392805e-02
 -1.757157e-01
 -2.476181e-01
 -3.113835e-01
 -3.683733e-01
 -4.196514e-01
 -4.660521e-01
 -5.082293e-01
 -5.466941e-01
 -5.818414e-01
 -6.139681e-01
 -6.432852e-01
 -6.699238e-01
 -6.939348e-01
 -7.152829e-01
 -7.338329e-01
 -7.493261e-01
 -7.613463e-01
 -7.692721e-01
 -7.722125e-01
  2.038032e-17
 -9.445600e-02
 -1.761555e-01
 -2.476433e-01
 -3.108474e-01
 -3.672383e-01
 -4.179453e-01
 -4.638413e-01
 -5.056042e-01
 -5.437606e-01
 -5.787169e-01
 -6.107803e-01
 -6.401721e-01
 -6.670337e-01
 -6.914263e-01
 -7.133213e-01
 -7.325803e-01
 -7.489191e-01
 -7.618494e-01
 -7.705893e-01
 -7.739324e-01
  2.058117e-17
 -9.495278e-02
 -1.765523e-01
 -2.476442e-01
 -3.103324e-01
 -3.661868e-01
 -4.163913e-01
 -4.618492e-01
 -5.032559e-01
 -5.411496e-01
 -5.759466e-01
 -6.079642e-01
 -6.374357e-01
 -6.645176e-01
 -6.892883e-01
 -7.117377e-01
 -7.317416e-01
 -7.490116e-01
 -7.630040e-01
 -7.727602e-01
 -7.766439e-01
  2.077315e-17
 -9.541372e-02
 -1.769096e-01
 -2.476461e-01
 -3.098930e-01
 -3.653023e-01
 -4.150984e-01
 -4.602045e-01
 -5.013272e-01
 -5.390122e-01
 -5.736832e-01
 -6.056667e-01
 -6.352087e-01
 -6.624830e-01
 -6.875910e-01
 -7.105522e-01
 -7.312761e-01
 -7.495029e-01
 -7.646771e-01
 -7.756814e-01
 -7.803050e-01
  2.094423e-17
 -9.580694e-02
 -1.771995e-01
 -2.476583e-01
 -3.095843e-01
 -3.646823e-01
 -4.141988e-01
 -4.590670e-01
 -4.999981e-01
 -5.375418e-01
 -5.721262e-01
 -6.040848e-01
 -6.336743e-01
 -6.610842e-01
 -6.864393e-01
 -7.097923e-01
 -7.310992e-01
 -7.501597e-01
 -7.664755e-01
 -7.788799e-01
 -7.845096e-01
  1.051801e-17
 -9.600594e-02
 -1.773301e-01
 -2.476684e-01
 -3.094663e-01
 -3.644449e-01
 -4.138564e-01
 -4.586358e-01
 -4.994954e-01
 -5.369854e-01
 -5.715357e-01
 -6.034825e-01
 -6.330872e-01
 -6.605469e-01
 -6.859984e-01
 -7.095133e-01
 -7.310772e-01
 -7.505375e-01
 -7.674682e-01
 -7.807907e-01
 -7.873399e-01
</DataArray>

</PointData>
</Piece>
</UnstructuredGrid>
</VTKFile>